+ 0.1 1 2 tcp 40 ------- 1 1.0 2.0 0 0
- 0.1 1 2 tcp 40 ------- 1 1.0 2.0 0 0
r 0.110032 1 2 tcp 40 ------- 1 1.0 2.0 0 0
+ 0.110032 2 1 ack 40 ------- 1 2.0 1.0 0 1
- 0.110032 2 1 ack 40 ------- 1 2.0 1.0 0 1
r 0.120064 2 1 ack 40 ------- 1 2.0 1.0 0 1
+ 0.120064 1 2 tcp 1040 ------- 1 1.0 2.0 1 2
- 0.120064 1 2 tcp 1040 ------- 1 1.0 2.0 1 2
+ 0.120064 1 2 tcp 1040 ------- 1 1.0 2.0 2 3
- 0.120896 1 2 tcp 1040 ------- 1 1.0 2.0 2 3
r 0.130896 1 2 tcp 1040 ------- 1 1.0 2.0 1 2
+ 0.130896 2 1 ack 40 ------- 1 2.0 1.0 1 4
- 0.130896 2 1 ack 40 ------- 1 2.0 1.0 1 4
r 0.131728 1 2 tcp 1040 ------- 1 1.0 2.0 2 3
+ 0.131728 2 1 ack 40 ------- 1 2.0 1.0 2 5
- 0.131728 2 1 ack 40 ------- 1 2.0 1.0 2 5
r 0.140928 2 1 ack 40 ------- 1 2.0 1.0 1 4
+ 0.140928 1 2 tcp 1040 ------- 1 1.0 2.0 3 6
- 0.140928 1 2 tcp 1040 ------- 1 1.0 2.0 3 6
+ 0.140928 1 2 tcp 1040 ------- 1 1.0 2.0 4 7
r 0.14176 2 1 ack 40 ------- 1 2.0 1.0 2 5
+ 0.14176 1 2 tcp 1040 ------- 1 1.0 2.0 5 8
+ 0.14176 1 2 tcp 1040 ------- 1 1.0 2.0 6 9
- 0.14176 1 2 tcp 1040 ------- 1 1.0 2.0 4 7
- 0.142592 1 2 tcp 1040 ------- 1 1.0 2.0 5 8
- 0.143424 1 2 tcp 1040 ------- 1 1.0 2.0 6 9
r 0.15176 1 2 tcp 1040 ------- 1 1.0 2.0 3 6
+ 0.15176 2 1 ack 40 ------- 1 2.0 1.0 3 10
- 0.15176 2 1 ack 40 ------- 1 2.0 1.0 3 10
r 0.152592 1 2 tcp 1040 ------- 1 1.0 2.0 4 7
+ 0.152592 2 1 ack 40 ------- 1 2.0 1.0 4 11
- 0.152592 2 1 ack 40 ------- 1 2.0 1.0 4 11
r 0.153424 1 2 tcp 1040 ------- 1 1.0 2.0 5 8
+ 0.153424 2 1 ack 40 ------- 1 2.0 1.0 5 12
- 0.153424 2 1 ack 40 ------- 1 2.0 1.0 5 12
r 0.154256 1 2 tcp 1040 ------- 1 1.0 2.0 6 9
+ 0.154256 2 1 ack 40 ------- 1 2.0 1.0 6 13
- 0.154256 2 1 ack 40 ------- 1 2.0 1.0 6 13
r 0.161792 2 1 ack 40 ------- 1 2.0 1.0 3 10
+ 0.161792 1 2 tcp 1040 ------- 1 1.0 2.0 7 14
- 0.161792 1 2 tcp 1040 ------- 1 1.0 2.0 7 14
+ 0.161792 1 2 tcp 1040 ------- 1 1.0 2.0 8 15
r 0.162624 2 1 ack 40 ------- 1 2.0 1.0 4 11
- 0.162624 1 2 tcp 1040 ------- 1 1.0 2.0 8 15
r 0.163456 2 1 ack 40 ------- 1 2.0 1.0 5 12
+ 0.164 1 2 tcp 1040 ------- 1 1.0 2.0 9 16
- 0.164 1 2 tcp 1040 ------- 1 1.0 2.0 9 16
r 0.164288 2 1 ack 40 ------- 1 2.0 1.0 6 13
+ 0.172 1 2 tcp 1040 ------- 1 1.0 2.0 10 17
- 0.172 1 2 tcp 1040 ------- 1 1.0 2.0 10 17
r 0.172624 1 2 tcp 1040 ------- 1 1.0 2.0 7 14
+ 0.172624 2 1 ack 40 ------- 1 2.0 1.0 7 18
- 0.172624 2 1 ack 40 ------- 1 2.0 1.0 7 18
r 0.173456 1 2 tcp 1040 ------- 1 1.0 2.0 8 15
+ 0.173456 2 1 ack 40 ------- 1 2.0 1.0 8 19
- 0.173456 2 1 ack 40 ------- 1 2.0 1.0 8 19
r 0.174832 1 2 tcp 1040 ------- 1 1.0 2.0 9 16
+ 0.174832 2 1 ack 40 ------- 1 2.0 1.0 9 20
- 0.174832 2 1 ack 40 ------- 1 2.0 1.0 9 20
+ 0.18 1 2 tcp 1040 ------- 1 1.0 2.0 11 21
- 0.18 1 2 tcp 1040 ------- 1 1.0 2.0 11 21
r 0.182656 2 1 ack 40 ------- 1 2.0 1.0 7 18
r 0.182832 1 2 tcp 1040 ------- 1 1.0 2.0 10 17
+ 0.182832 2 1 ack 40 ------- 1 2.0 1.0 10 22
- 0.182832 2 1 ack 40 ------- 1 2.0 1.0 10 22
r 0.183488 2 1 ack 40 ------- 1 2.0 1.0 8 19
r 0.184864 2 1 ack 40 ------- 1 2.0 1.0 9 20
+ 0.188 1 2 tcp 1040 ------- 1 1.0 2.0 12 23
- 0.188 1 2 tcp 1040 ------- 1 1.0 2.0 12 23
r 0.190832 1 2 tcp 1040 ------- 1 1.0 2.0 11 21
+ 0.190832 2 1 ack 40 ------- 1 2.0 1.0 11 24
- 0.190832 2 1 ack 40 ------- 1 2.0 1.0 11 24
r 0.192864 2 1 ack 40 ------- 1 2.0 1.0 10 22
+ 0.196 1 2 tcp 1040 ------- 1 1.0 2.0 13 25
- 0.196 1 2 tcp 1040 ------- 1 1.0 2.0 13 25
r 0.198832 1 2 tcp 1040 ------- 1 1.0 2.0 12 23
+ 0.198832 2 1 ack 40 ------- 1 2.0 1.0 12 26
- 0.198832 2 1 ack 40 ------- 1 2.0 1.0 12 26
r 0.200864 2 1 ack 40 ------- 1 2.0 1.0 11 24
+ 0.204 1 2 tcp 1040 ------- 1 1.0 2.0 14 27
- 0.204 1 2 tcp 1040 ------- 1 1.0 2.0 14 27
r 0.206832 1 2 tcp 1040 ------- 1 1.0 2.0 13 25
+ 0.206832 2 1 ack 40 ------- 1 2.0 1.0 13 28
- 0.206832 2 1 ack 40 ------- 1 2.0 1.0 13 28
r 0.208864 2 1 ack 40 ------- 1 2.0 1.0 12 26
+ 0.212 1 2 tcp 1040 ------- 1 1.0 2.0 15 29
- 0.212 1 2 tcp 1040 ------- 1 1.0 2.0 15 29
r 0.214832 1 2 tcp 1040 ------- 1 1.0 2.0 14 27
+ 0.214832 2 1 ack 40 ------- 1 2.0 1.0 14 30
- 0.214832 2 1 ack 40 ------- 1 2.0 1.0 14 30
r 0.216864 2 1 ack 40 ------- 1 2.0 1.0 13 28
+ 0.22 1 2 tcp 1040 ------- 1 1.0 2.0 16 31
- 0.22 1 2 tcp 1040 ------- 1 1.0 2.0 16 31
r 0.222832 1 2 tcp 1040 ------- 1 1.0 2.0 15 29
+ 0.222832 2 1 ack 40 ------- 1 2.0 1.0 15 32
- 0.222832 2 1 ack 40 ------- 1 2.0 1.0 15 32
r 0.224864 2 1 ack 40 ------- 1 2.0 1.0 14 30
+ 0.228 1 2 tcp 1040 ------- 1 1.0 2.0 17 33
- 0.228 1 2 tcp 1040 ------- 1 1.0 2.0 17 33
r 0.230832 1 2 tcp 1040 ------- 1 1.0 2.0 16 31
+ 0.230832 2 1 ack 40 ------- 1 2.0 1.0 16 34
- 0.230832 2 1 ack 40 ------- 1 2.0 1.0 16 34
r 0.232864 2 1 ack 40 ------- 1 2.0 1.0 15 32
+ 0.236 1 2 tcp 1040 ------- 1 1.0 2.0 18 35
- 0.236 1 2 tcp 1040 ------- 1 1.0 2.0 18 35
r 0.238832 1 2 tcp 1040 ------- 1 1.0 2.0 17 33
+ 0.238832 2 1 ack 40 ------- 1 2.0 1.0 17 36
- 0.238832 2 1 ack 40 ------- 1 2.0 1.0 17 36
r 0.240864 2 1 ack 40 ------- 1 2.0 1.0 16 34
+ 0.244 1 2 tcp 1040 ------- 1 1.0 2.0 19 37
- 0.244 1 2 tcp 1040 ------- 1 1.0 2.0 19 37
r 0.246832 1 2 tcp 1040 ------- 1 1.0 2.0 18 35
+ 0.246832 2 1 ack 40 ------- 1 2.0 1.0 18 38
- 0.246832 2 1 ack 40 ------- 1 2.0 1.0 18 38
r 0.248864 2 1 ack 40 ------- 1 2.0 1.0 17 36
+ 0.252 1 2 tcp 1040 ------- 1 1.0 2.0 20 39
- 0.252 1 2 tcp 1040 ------- 1 1.0 2.0 20 39
r 0.254832 1 2 tcp 1040 ------- 1 1.0 2.0 19 37
+ 0.254832 2 1 ack 40 ------- 1 2.0 1.0 19 40
- 0.254832 2 1 ack 40 ------- 1 2.0 1.0 19 40
r 0.256864 2 1 ack 40 ------- 1 2.0 1.0 18 38
+ 0.26 1 2 tcp 1040 ------- 1 1.0 2.0 21 41
- 0.26 1 2 tcp 1040 ------- 1 1.0 2.0 21 41
r 0.262832 1 2 tcp 1040 ------- 1 1.0 2.0 20 39
+ 0.262832 2 1 ack 40 ------- 1 2.0 1.0 20 42
- 0.262832 2 1 ack 40 ------- 1 2.0 1.0 20 42
r 0.264864 2 1 ack 40 ------- 1 2.0 1.0 19 40
+ 0.268 1 2 tcp 1040 ------- 1 1.0 2.0 22 43
- 0.268 1 2 tcp 1040 ------- 1 1.0 2.0 22 43
r 0.270832 1 2 tcp 1040 ------- 1 1.0 2.0 21 41
+ 0.270832 2 1 ack 40 ------- 1 2.0 1.0 21 44
- 0.270832 2 1 ack 40 ------- 1 2.0 1.0 21 44
r 0.272864 2 1 ack 40 ------- 1 2.0 1.0 20 42
+ 0.276 1 2 tcp 1040 ------- 1 1.0 2.0 23 45
- 0.276 1 2 tcp 1040 ------- 1 1.0 2.0 23 45
r 0.278832 1 2 tcp 1040 ------- 1 1.0 2.0 22 43
+ 0.278832 2 1 ack 40 ------- 1 2.0 1.0 22 46
- 0.278832 2 1 ack 40 ------- 1 2.0 1.0 22 46
r 0.280864 2 1 ack 40 ------- 1 2.0 1.0 21 44
+ 0.284 1 2 tcp 1040 ------- 1 1.0 2.0 24 47
- 0.284 1 2 tcp 1040 ------- 1 1.0 2.0 24 47
r 0.286832 1 2 tcp 1040 ------- 1 1.0 2.0 23 45
+ 0.286832 2 1 ack 40 ------- 1 2.0 1.0 23 48
- 0.286832 2 1 ack 40 ------- 1 2.0 1.0 23 48
r 0.288864 2 1 ack 40 ------- 1 2.0 1.0 22 46
+ 0.292 1 2 tcp 1040 ------- 1 1.0 2.0 25 49
- 0.292 1 2 tcp 1040 ------- 1 1.0 2.0 25 49
r 0.294832 1 2 tcp 1040 ------- 1 1.0 2.0 24 47
+ 0.294832 2 1 ack 40 ------- 1 2.0 1.0 24 50
- 0.294832 2 1 ack 40 ------- 1 2.0 1.0 24 50
r 0.296864 2 1 ack 40 ------- 1 2.0 1.0 23 48
+ 0.3 1 2 tcp 1040 ------- 1 1.0 2.0 26 51
- 0.3 1 2 tcp 1040 ------- 1 1.0 2.0 26 51
r 0.302832 1 2 tcp 1040 ------- 1 1.0 2.0 25 49
+ 0.302832 2 1 ack 40 ------- 1 2.0 1.0 25 52
- 0.302832 2 1 ack 40 ------- 1 2.0 1.0 25 52
r 0.304864 2 1 ack 40 ------- 1 2.0 1.0 24 50
+ 0.308 1 2 tcp 1040 ------- 1 1.0 2.0 27 53
- 0.308 1 2 tcp 1040 ------- 1 1.0 2.0 27 53
r 0.310832 1 2 tcp 1040 ------- 1 1.0 2.0 26 51
+ 0.310832 2 1 ack 40 ------- 1 2.0 1.0 26 54
- 0.310832 2 1 ack 40 ------- 1 2.0 1.0 26 54
r 0.312864 2 1 ack 40 ------- 1 2.0 1.0 25 52
+ 0.316 1 2 tcp 1040 ------- 1 1.0 2.0 28 55
- 0.316 1 2 tcp 1040 ------- 1 1.0 2.0 28 55
r 0.318832 1 2 tcp 1040 ------- 1 1.0 2.0 27 53
+ 0.318832 2 1 ack 40 ------- 1 2.0 1.0 27 56
- 0.318832 2 1 ack 40 ------- 1 2.0 1.0 27 56
r 0.320864 2 1 ack 40 ------- 1 2.0 1.0 26 54
+ 0.324 1 2 tcp 1040 ------- 1 1.0 2.0 29 57
- 0.324 1 2 tcp 1040 ------- 1 1.0 2.0 29 57
r 0.326832 1 2 tcp 1040 ------- 1 1.0 2.0 28 55
+ 0.326832 2 1 ack 40 ------- 1 2.0 1.0 28 58
- 0.326832 2 1 ack 40 ------- 1 2.0 1.0 28 58
r 0.328864 2 1 ack 40 ------- 1 2.0 1.0 27 56
+ 0.332 1 2 tcp 1040 ------- 1 1.0 2.0 30 59
- 0.332 1 2 tcp 1040 ------- 1 1.0 2.0 30 59
r 0.334832 1 2 tcp 1040 ------- 1 1.0 2.0 29 57
+ 0.334832 2 1 ack 40 ------- 1 2.0 1.0 29 60
- 0.334832 2 1 ack 40 ------- 1 2.0 1.0 29 60
r 0.336864 2 1 ack 40 ------- 1 2.0 1.0 28 58
+ 0.34 1 2 tcp 1040 ------- 1 1.0 2.0 31 61
- 0.34 1 2 tcp 1040 ------- 1 1.0 2.0 31 61
r 0.342832 1 2 tcp 1040 ------- 1 1.0 2.0 30 59
+ 0.342832 2 1 ack 40 ------- 1 2.0 1.0 30 62
- 0.342832 2 1 ack 40 ------- 1 2.0 1.0 30 62
r 0.344864 2 1 ack 40 ------- 1 2.0 1.0 29 60
+ 0.348 1 2 tcp 1040 ------- 1 1.0 2.0 32 63
- 0.348 1 2 tcp 1040 ------- 1 1.0 2.0 32 63
r 0.350832 1 2 tcp 1040 ------- 1 1.0 2.0 31 61
+ 0.350832 2 1 ack 40 ------- 1 2.0 1.0 31 64
- 0.350832 2 1 ack 40 ------- 1 2.0 1.0 31 64
r 0.352864 2 1 ack 40 ------- 1 2.0 1.0 30 62
+ 0.356 1 2 tcp 1040 ------- 1 1.0 2.0 33 65
- 0.356 1 2 tcp 1040 ------- 1 1.0 2.0 33 65
r 0.358832 1 2 tcp 1040 ------- 1 1.0 2.0 32 63
+ 0.358832 2 1 ack 40 ------- 1 2.0 1.0 32 66
- 0.358832 2 1 ack 40 ------- 1 2.0 1.0 32 66
r 0.360864 2 1 ack 40 ------- 1 2.0 1.0 31 64
+ 0.364 1 2 tcp 1040 ------- 1 1.0 2.0 34 67
- 0.364 1 2 tcp 1040 ------- 1 1.0 2.0 34 67
r 0.366832 1 2 tcp 1040 ------- 1 1.0 2.0 33 65
+ 0.366832 2 1 ack 40 ------- 1 2.0 1.0 33 68
- 0.366832 2 1 ack 40 ------- 1 2.0 1.0 33 68
r 0.368864 2 1 ack 40 ------- 1 2.0 1.0 32 66
+ 0.372 1 2 tcp 1040 ------- 1 1.0 2.0 35 69
- 0.372 1 2 tcp 1040 ------- 1 1.0 2.0 35 69
r 0.374832 1 2 tcp 1040 ------- 1 1.0 2.0 34 67
+ 0.374832 2 1 ack 40 ------- 1 2.0 1.0 34 70
- 0.374832 2 1 ack 40 ------- 1 2.0 1.0 34 70
r 0.376864 2 1 ack 40 ------- 1 2.0 1.0 33 68
+ 0.38 1 2 tcp 1040 ------- 1 1.0 2.0 36 71
- 0.38 1 2 tcp 1040 ------- 1 1.0 2.0 36 71
r 0.382832 1 2 tcp 1040 ------- 1 1.0 2.0 35 69
+ 0.382832 2 1 ack 40 ------- 1 2.0 1.0 35 72
- 0.382832 2 1 ack 40 ------- 1 2.0 1.0 35 72
r 0.384864 2 1 ack 40 ------- 1 2.0 1.0 34 70
+ 0.388 1 2 tcp 1040 ------- 1 1.0 2.0 37 73
- 0.388 1 2 tcp 1040 ------- 1 1.0 2.0 37 73
r 0.390832 1 2 tcp 1040 ------- 1 1.0 2.0 36 71
+ 0.390832 2 1 ack 40 ------- 1 2.0 1.0 36 74
- 0.390832 2 1 ack 40 ------- 1 2.0 1.0 36 74
r 0.392864 2 1 ack 40 ------- 1 2.0 1.0 35 72
+ 0.396 1 2 tcp 1040 ------- 1 1.0 2.0 38 75
- 0.396 1 2 tcp 1040 ------- 1 1.0 2.0 38 75
r 0.398832 1 2 tcp 1040 ------- 1 1.0 2.0 37 73
+ 0.398832 2 1 ack 40 ------- 1 2.0 1.0 37 76
- 0.398832 2 1 ack 40 ------- 1 2.0 1.0 37 76
r 0.400864 2 1 ack 40 ------- 1 2.0 1.0 36 74
+ 0.404 1 2 tcp 1040 ------- 1 1.0 2.0 39 77
- 0.404 1 2 tcp 1040 ------- 1 1.0 2.0 39 77
r 0.406832 1 2 tcp 1040 ------- 1 1.0 2.0 38 75
+ 0.406832 2 1 ack 40 ------- 1 2.0 1.0 38 78
- 0.406832 2 1 ack 40 ------- 1 2.0 1.0 38 78
r 0.408864 2 1 ack 40 ------- 1 2.0 1.0 37 76
+ 0.412 1 2 tcp 1040 ------- 1 1.0 2.0 40 79
- 0.412 1 2 tcp 1040 ------- 1 1.0 2.0 40 79
r 0.414832 1 2 tcp 1040 ------- 1 1.0 2.0 39 77
+ 0.414832 2 1 ack 40 ------- 1 2.0 1.0 39 80
- 0.414832 2 1 ack 40 ------- 1 2.0 1.0 39 80
r 0.416864 2 1 ack 40 ------- 1 2.0 1.0 38 78
+ 0.42 1 2 tcp 1040 ------- 1 1.0 2.0 41 81
- 0.42 1 2 tcp 1040 ------- 1 1.0 2.0 41 81
r 0.422832 1 2 tcp 1040 ------- 1 1.0 2.0 40 79
+ 0.422832 2 1 ack 40 ------- 1 2.0 1.0 40 82
- 0.422832 2 1 ack 40 ------- 1 2.0 1.0 40 82
r 0.424864 2 1 ack 40 ------- 1 2.0 1.0 39 80
+ 0.428 1 2 tcp 1040 ------- 1 1.0 2.0 42 83
- 0.428 1 2 tcp 1040 ------- 1 1.0 2.0 42 83
r 0.430832 1 2 tcp 1040 ------- 1 1.0 2.0 41 81
+ 0.430832 2 1 ack 40 ------- 1 2.0 1.0 41 84
- 0.430832 2 1 ack 40 ------- 1 2.0 1.0 41 84
r 0.432864 2 1 ack 40 ------- 1 2.0 1.0 40 82
+ 0.436 1 2 tcp 1040 ------- 1 1.0 2.0 43 85
- 0.436 1 2 tcp 1040 ------- 1 1.0 2.0 43 85
r 0.438832 1 2 tcp 1040 ------- 1 1.0 2.0 42 83
+ 0.438832 2 1 ack 40 ------- 1 2.0 1.0 42 86
- 0.438832 2 1 ack 40 ------- 1 2.0 1.0 42 86
r 0.440864 2 1 ack 40 ------- 1 2.0 1.0 41 84
+ 0.444 1 2 tcp 1040 ------- 1 1.0 2.0 44 87
- 0.444 1 2 tcp 1040 ------- 1 1.0 2.0 44 87
r 0.446832 1 2 tcp 1040 ------- 1 1.0 2.0 43 85
+ 0.446832 2 1 ack 40 ------- 1 2.0 1.0 43 88
- 0.446832 2 1 ack 40 ------- 1 2.0 1.0 43 88
r 0.448864 2 1 ack 40 ------- 1 2.0 1.0 42 86
+ 0.452 1 2 tcp 1040 ------- 1 1.0 2.0 45 89
- 0.452 1 2 tcp 1040 ------- 1 1.0 2.0 45 89
r 0.454832 1 2 tcp 1040 ------- 1 1.0 2.0 44 87
+ 0.454832 2 1 ack 40 ------- 1 2.0 1.0 44 90
- 0.454832 2 1 ack 40 ------- 1 2.0 1.0 44 90
r 0.456864 2 1 ack 40 ------- 1 2.0 1.0 43 88
+ 0.46 1 2 tcp 1040 ------- 1 1.0 2.0 46 91
- 0.46 1 2 tcp 1040 ------- 1 1.0 2.0 46 91
r 0.462832 1 2 tcp 1040 ------- 1 1.0 2.0 45 89
+ 0.462832 2 1 ack 40 ------- 1 2.0 1.0 45 92
- 0.462832 2 1 ack 40 ------- 1 2.0 1.0 45 92
r 0.464864 2 1 ack 40 ------- 1 2.0 1.0 44 90
+ 0.468 1 2 tcp 1040 ------- 1 1.0 2.0 47 93
- 0.468 1 2 tcp 1040 ------- 1 1.0 2.0 47 93
r 0.470832 1 2 tcp 1040 ------- 1 1.0 2.0 46 91
+ 0.470832 2 1 ack 40 ------- 1 2.0 1.0 46 94
- 0.470832 2 1 ack 40 ------- 1 2.0 1.0 46 94
r 0.472864 2 1 ack 40 ------- 1 2.0 1.0 45 92
+ 0.476 1 2 tcp 1040 ------- 1 1.0 2.0 48 95
- 0.476 1 2 tcp 1040 ------- 1 1.0 2.0 48 95
r 0.478832 1 2 tcp 1040 ------- 1 1.0 2.0 47 93
+ 0.478832 2 1 ack 40 ------- 1 2.0 1.0 47 96
- 0.478832 2 1 ack 40 ------- 1 2.0 1.0 47 96
r 0.480864 2 1 ack 40 ------- 1 2.0 1.0 46 94
+ 0.484 1 2 tcp 1040 ------- 1 1.0 2.0 49 97
- 0.484 1 2 tcp 1040 ------- 1 1.0 2.0 49 97
r 0.486832 1 2 tcp 1040 ------- 1 1.0 2.0 48 95
+ 0.486832 2 1 ack 40 ------- 1 2.0 1.0 48 98
- 0.486832 2 1 ack 40 ------- 1 2.0 1.0 48 98
r 0.488864 2 1 ack 40 ------- 1 2.0 1.0 47 96
+ 0.492 1 2 tcp 1040 ------- 1 1.0 2.0 50 99
- 0.492 1 2 tcp 1040 ------- 1 1.0 2.0 50 99
r 0.494832 1 2 tcp 1040 ------- 1 1.0 2.0 49 97
+ 0.494832 2 1 ack 40 ------- 1 2.0 1.0 49 100
- 0.494832 2 1 ack 40 ------- 1 2.0 1.0 49 100
r 0.496864 2 1 ack 40 ------- 1 2.0 1.0 48 98
+ 0.5 1 2 tcp 1040 ------- 1 1.0 2.0 51 101
- 0.5 1 2 tcp 1040 ------- 1 1.0 2.0 51 101
r 0.502832 1 2 tcp 1040 ------- 1 1.0 2.0 50 99
+ 0.502832 2 1 ack 40 ------- 1 2.0 1.0 50 102
- 0.502832 2 1 ack 40 ------- 1 2.0 1.0 50 102
r 0.504864 2 1 ack 40 ------- 1 2.0 1.0 49 100
+ 0.508 1 2 tcp 1040 ------- 1 1.0 2.0 52 103
- 0.508 1 2 tcp 1040 ------- 1 1.0 2.0 52 103
r 0.510832 1 2 tcp 1040 ------- 1 1.0 2.0 51 101
+ 0.510832 2 1 ack 40 ------- 1 2.0 1.0 51 104
- 0.510832 2 1 ack 40 ------- 1 2.0 1.0 51 104
r 0.512864 2 1 ack 40 ------- 1 2.0 1.0 50 102
+ 0.516 1 2 tcp 1040 ------- 1 1.0 2.0 53 105
- 0.516 1 2 tcp 1040 ------- 1 1.0 2.0 53 105
r 0.518832 1 2 tcp 1040 ------- 1 1.0 2.0 52 103
+ 0.518832 2 1 ack 40 ------- 1 2.0 1.0 52 106
- 0.518832 2 1 ack 40 ------- 1 2.0 1.0 52 106
r 0.520864 2 1 ack 40 ------- 1 2.0 1.0 51 104
+ 0.524 1 2 tcp 1040 ------- 1 1.0 2.0 54 107
- 0.524 1 2 tcp 1040 ------- 1 1.0 2.0 54 107
r 0.526832 1 2 tcp 1040 ------- 1 1.0 2.0 53 105
+ 0.526832 2 1 ack 40 ------- 1 2.0 1.0 53 108
- 0.526832 2 1 ack 40 ------- 1 2.0 1.0 53 108
r 0.528864 2 1 ack 40 ------- 1 2.0 1.0 52 106
+ 0.532 1 2 tcp 1040 ------- 1 1.0 2.0 55 109
- 0.532 1 2 tcp 1040 ------- 1 1.0 2.0 55 109
r 0.534832 1 2 tcp 1040 ------- 1 1.0 2.0 54 107
+ 0.534832 2 1 ack 40 ------- 1 2.0 1.0 54 110
- 0.534832 2 1 ack 40 ------- 1 2.0 1.0 54 110
r 0.536864 2 1 ack 40 ------- 1 2.0 1.0 53 108
+ 0.54 1 2 tcp 1040 ------- 1 1.0 2.0 56 111
- 0.54 1 2 tcp 1040 ------- 1 1.0 2.0 56 111
r 0.542832 1 2 tcp 1040 ------- 1 1.0 2.0 55 109
+ 0.542832 2 1 ack 40 ------- 1 2.0 1.0 55 112
- 0.542832 2 1 ack 40 ------- 1 2.0 1.0 55 112
r 0.544864 2 1 ack 40 ------- 1 2.0 1.0 54 110
+ 0.548 1 2 tcp 1040 ------- 1 1.0 2.0 57 113
- 0.548 1 2 tcp 1040 ------- 1 1.0 2.0 57 113
r 0.550832 1 2 tcp 1040 ------- 1 1.0 2.0 56 111
+ 0.550832 2 1 ack 40 ------- 1 2.0 1.0 56 114
- 0.550832 2 1 ack 40 ------- 1 2.0 1.0 56 114
r 0.552864 2 1 ack 40 ------- 1 2.0 1.0 55 112
+ 0.556 1 2 tcp 1040 ------- 1 1.0 2.0 58 115
- 0.556 1 2 tcp 1040 ------- 1 1.0 2.0 58 115
r 0.558832 1 2 tcp 1040 ------- 1 1.0 2.0 57 113
+ 0.558832 2 1 ack 40 ------- 1 2.0 1.0 57 116
- 0.558832 2 1 ack 40 ------- 1 2.0 1.0 57 116
r 0.560864 2 1 ack 40 ------- 1 2.0 1.0 56 114
+ 0.564 1 2 tcp 1040 ------- 1 1.0 2.0 59 117
- 0.564 1 2 tcp 1040 ------- 1 1.0 2.0 59 117
r 0.566832 1 2 tcp 1040 ------- 1 1.0 2.0 58 115
+ 0.566832 2 1 ack 40 ------- 1 2.0 1.0 58 118
- 0.566832 2 1 ack 40 ------- 1 2.0 1.0 58 118
r 0.568864 2 1 ack 40 ------- 1 2.0 1.0 57 116
+ 0.572 1 2 tcp 1040 ------- 1 1.0 2.0 60 119
- 0.572 1 2 tcp 1040 ------- 1 1.0 2.0 60 119
r 0.574832 1 2 tcp 1040 ------- 1 1.0 2.0 59 117
+ 0.574832 2 1 ack 40 ------- 1 2.0 1.0 59 120
- 0.574832 2 1 ack 40 ------- 1 2.0 1.0 59 120
r 0.576864 2 1 ack 40 ------- 1 2.0 1.0 58 118
+ 0.58 1 2 tcp 1040 ------- 1 1.0 2.0 61 121
- 0.58 1 2 tcp 1040 ------- 1 1.0 2.0 61 121
r 0.582832 1 2 tcp 1040 ------- 1 1.0 2.0 60 119
+ 0.582832 2 1 ack 40 ------- 1 2.0 1.0 60 122
- 0.582832 2 1 ack 40 ------- 1 2.0 1.0 60 122
r 0.584864 2 1 ack 40 ------- 1 2.0 1.0 59 120
+ 0.588 1 2 tcp 1040 ------- 1 1.0 2.0 62 123
- 0.588 1 2 tcp 1040 ------- 1 1.0 2.0 62 123
r 0.590832 1 2 tcp 1040 ------- 1 1.0 2.0 61 121
+ 0.590832 2 1 ack 40 ------- 1 2.0 1.0 61 124
- 0.590832 2 1 ack 40 ------- 1 2.0 1.0 61 124
r 0.592864 2 1 ack 40 ------- 1 2.0 1.0 60 122
+ 0.596 1 2 tcp 1040 ------- 1 1.0 2.0 63 125
- 0.596 1 2 tcp 1040 ------- 1 1.0 2.0 63 125
r 0.598832 1 2 tcp 1040 ------- 1 1.0 2.0 62 123
+ 0.598832 2 1 ack 40 ------- 1 2.0 1.0 62 126
- 0.598832 2 1 ack 40 ------- 1 2.0 1.0 62 126
r 0.600864 2 1 ack 40 ------- 1 2.0 1.0 61 124
+ 0.604 1 2 tcp 1040 ------- 1 1.0 2.0 64 127
- 0.604 1 2 tcp 1040 ------- 1 1.0 2.0 64 127
r 0.606832 1 2 tcp 1040 ------- 1 1.0 2.0 63 125
+ 0.606832 2 1 ack 40 ------- 1 2.0 1.0 63 128
- 0.606832 2 1 ack 40 ------- 1 2.0 1.0 63 128
r 0.608864 2 1 ack 40 ------- 1 2.0 1.0 62 126
+ 0.612 1 2 tcp 1040 ------- 1 1.0 2.0 65 129
- 0.612 1 2 tcp 1040 ------- 1 1.0 2.0 65 129
r 0.614832 1 2 tcp 1040 ------- 1 1.0 2.0 64 127
+ 0.614832 2 1 ack 40 ------- 1 2.0 1.0 64 130
- 0.614832 2 1 ack 40 ------- 1 2.0 1.0 64 130
r 0.616864 2 1 ack 40 ------- 1 2.0 1.0 63 128
+ 0.62 1 2 tcp 1040 ------- 1 1.0 2.0 66 131
- 0.62 1 2 tcp 1040 ------- 1 1.0 2.0 66 131
r 0.622832 1 2 tcp 1040 ------- 1 1.0 2.0 65 129
+ 0.622832 2 1 ack 40 ------- 1 2.0 1.0 65 132
- 0.622832 2 1 ack 40 ------- 1 2.0 1.0 65 132
r 0.624864 2 1 ack 40 ------- 1 2.0 1.0 64 130
+ 0.628 1 2 tcp 1040 ------- 1 1.0 2.0 67 133
- 0.628 1 2 tcp 1040 ------- 1 1.0 2.0 67 133
r 0.630832 1 2 tcp 1040 ------- 1 1.0 2.0 66 131
+ 0.630832 2 1 ack 40 ------- 1 2.0 1.0 66 134
- 0.630832 2 1 ack 40 ------- 1 2.0 1.0 66 134
r 0.632864 2 1 ack 40 ------- 1 2.0 1.0 65 132
+ 0.636 1 2 tcp 1040 ------- 1 1.0 2.0 68 135
- 0.636 1 2 tcp 1040 ------- 1 1.0 2.0 68 135
r 0.638832 1 2 tcp 1040 ------- 1 1.0 2.0 67 133
+ 0.638832 2 1 ack 40 ------- 1 2.0 1.0 67 136
- 0.638832 2 1 ack 40 ------- 1 2.0 1.0 67 136
r 0.640864 2 1 ack 40 ------- 1 2.0 1.0 66 134
+ 0.644 1 2 tcp 1040 ------- 1 1.0 2.0 69 137
- 0.644 1 2 tcp 1040 ------- 1 1.0 2.0 69 137
r 0.646832 1 2 tcp 1040 ------- 1 1.0 2.0 68 135
+ 0.646832 2 1 ack 40 ------- 1 2.0 1.0 68 138
- 0.646832 2 1 ack 40 ------- 1 2.0 1.0 68 138
r 0.648864 2 1 ack 40 ------- 1 2.0 1.0 67 136
+ 0.652 1 2 tcp 1040 ------- 1 1.0 2.0 70 139
- 0.652 1 2 tcp 1040 ------- 1 1.0 2.0 70 139
r 0.654832 1 2 tcp 1040 ------- 1 1.0 2.0 69 137
+ 0.654832 2 1 ack 40 ------- 1 2.0 1.0 69 140
- 0.654832 2 1 ack 40 ------- 1 2.0 1.0 69 140
r 0.656864 2 1 ack 40 ------- 1 2.0 1.0 68 138
+ 0.66 1 2 tcp 1040 ------- 1 1.0 2.0 71 141
- 0.66 1 2 tcp 1040 ------- 1 1.0 2.0 71 141
r 0.662832 1 2 tcp 1040 ------- 1 1.0 2.0 70 139
+ 0.662832 2 1 ack 40 ------- 1 2.0 1.0 70 142
- 0.662832 2 1 ack 40 ------- 1 2.0 1.0 70 142
r 0.664864 2 1 ack 40 ------- 1 2.0 1.0 69 140
+ 0.668 1 2 tcp 1040 ------- 1 1.0 2.0 72 143
- 0.668 1 2 tcp 1040 ------- 1 1.0 2.0 72 143
r 0.670832 1 2 tcp 1040 ------- 1 1.0 2.0 71 141
+ 0.670832 2 1 ack 40 ------- 1 2.0 1.0 71 144
- 0.670832 2 1 ack 40 ------- 1 2.0 1.0 71 144
r 0.672864 2 1 ack 40 ------- 1 2.0 1.0 70 142
+ 0.676 1 2 tcp 1040 ------- 1 1.0 2.0 73 145
- 0.676 1 2 tcp 1040 ------- 1 1.0 2.0 73 145
r 0.678832 1 2 tcp 1040 ------- 1 1.0 2.0 72 143
+ 0.678832 2 1 ack 40 ------- 1 2.0 1.0 72 146
- 0.678832 2 1 ack 40 ------- 1 2.0 1.0 72 146
r 0.680864 2 1 ack 40 ------- 1 2.0 1.0 71 144
+ 0.684 1 2 tcp 1040 ------- 1 1.0 2.0 74 147
- 0.684 1 2 tcp 1040 ------- 1 1.0 2.0 74 147
r 0.686832 1 2 tcp 1040 ------- 1 1.0 2.0 73 145
+ 0.686832 2 1 ack 40 ------- 1 2.0 1.0 73 148
- 0.686832 2 1 ack 40 ------- 1 2.0 1.0 73 148
r 0.688864 2 1 ack 40 ------- 1 2.0 1.0 72 146
+ 0.692 1 2 tcp 1040 ------- 1 1.0 2.0 75 149
- 0.692 1 2 tcp 1040 ------- 1 1.0 2.0 75 149
r 0.694832 1 2 tcp 1040 ------- 1 1.0 2.0 74 147
+ 0.694832 2 1 ack 40 ------- 1 2.0 1.0 74 150
- 0.694832 2 1 ack 40 ------- 1 2.0 1.0 74 150
r 0.696864 2 1 ack 40 ------- 1 2.0 1.0 73 148
+ 0.7 1 2 tcp 1040 ------- 1 1.0 2.0 76 151
- 0.7 1 2 tcp 1040 ------- 1 1.0 2.0 76 151
r 0.702832 1 2 tcp 1040 ------- 1 1.0 2.0 75 149
+ 0.702832 2 1 ack 40 ------- 1 2.0 1.0 75 152
- 0.702832 2 1 ack 40 ------- 1 2.0 1.0 75 152
r 0.704864 2 1 ack 40 ------- 1 2.0 1.0 74 150
+ 0.708 1 2 tcp 1040 ------- 1 1.0 2.0 77 153
- 0.708 1 2 tcp 1040 ------- 1 1.0 2.0 77 153
r 0.710832 1 2 tcp 1040 ------- 1 1.0 2.0 76 151
+ 0.710832 2 1 ack 40 ------- 1 2.0 1.0 76 154
- 0.710832 2 1 ack 40 ------- 1 2.0 1.0 76 154
r 0.712864 2 1 ack 40 ------- 1 2.0 1.0 75 152
+ 0.716 1 2 tcp 1040 ------- 1 1.0 2.0 78 155
- 0.716 1 2 tcp 1040 ------- 1 1.0 2.0 78 155
r 0.718832 1 2 tcp 1040 ------- 1 1.0 2.0 77 153
+ 0.718832 2 1 ack 40 ------- 1 2.0 1.0 77 156
- 0.718832 2 1 ack 40 ------- 1 2.0 1.0 77 156
r 0.720864 2 1 ack 40 ------- 1 2.0 1.0 76 154
+ 0.724 1 2 tcp 1040 ------- 1 1.0 2.0 79 157
- 0.724 1 2 tcp 1040 ------- 1 1.0 2.0 79 157
r 0.726832 1 2 tcp 1040 ------- 1 1.0 2.0 78 155
+ 0.726832 2 1 ack 40 ------- 1 2.0 1.0 78 158
- 0.726832 2 1 ack 40 ------- 1 2.0 1.0 78 158
r 0.728864 2 1 ack 40 ------- 1 2.0 1.0 77 156
+ 0.732 1 2 tcp 1040 ------- 1 1.0 2.0 80 159
- 0.732 1 2 tcp 1040 ------- 1 1.0 2.0 80 159
r 0.734832 1 2 tcp 1040 ------- 1 1.0 2.0 79 157
+ 0.734832 2 1 ack 40 ------- 1 2.0 1.0 79 160
- 0.734832 2 1 ack 40 ------- 1 2.0 1.0 79 160
r 0.736864 2 1 ack 40 ------- 1 2.0 1.0 78 158
+ 0.74 1 2 tcp 1040 ------- 1 1.0 2.0 81 161
- 0.74 1 2 tcp 1040 ------- 1 1.0 2.0 81 161
r 0.742832 1 2 tcp 1040 ------- 1 1.0 2.0 80 159
+ 0.742832 2 1 ack 40 ------- 1 2.0 1.0 80 162
- 0.742832 2 1 ack 40 ------- 1 2.0 1.0 80 162
r 0.744864 2 1 ack 40 ------- 1 2.0 1.0 79 160
+ 0.748 1 2 tcp 1040 ------- 1 1.0 2.0 82 163
- 0.748 1 2 tcp 1040 ------- 1 1.0 2.0 82 163
r 0.750832 1 2 tcp 1040 ------- 1 1.0 2.0 81 161
+ 0.750832 2 1 ack 40 ------- 1 2.0 1.0 81 164
- 0.750832 2 1 ack 40 ------- 1 2.0 1.0 81 164
r 0.752864 2 1 ack 40 ------- 1 2.0 1.0 80 162
+ 0.756 1 2 tcp 1040 ------- 1 1.0 2.0 83 165
- 0.756 1 2 tcp 1040 ------- 1 1.0 2.0 83 165
r 0.758832 1 2 tcp 1040 ------- 1 1.0 2.0 82 163
+ 0.758832 2 1 ack 40 ------- 1 2.0 1.0 82 166
- 0.758832 2 1 ack 40 ------- 1 2.0 1.0 82 166
r 0.760864 2 1 ack 40 ------- 1 2.0 1.0 81 164
+ 0.764 1 2 tcp 1040 ------- 1 1.0 2.0 84 167
- 0.764 1 2 tcp 1040 ------- 1 1.0 2.0 84 167
r 0.766832 1 2 tcp 1040 ------- 1 1.0 2.0 83 165
+ 0.766832 2 1 ack 40 ------- 1 2.0 1.0 83 168
- 0.766832 2 1 ack 40 ------- 1 2.0 1.0 83 168
r 0.768864 2 1 ack 40 ------- 1 2.0 1.0 82 166
+ 0.772 1 2 tcp 1040 ------- 1 1.0 2.0 85 169
- 0.772 1 2 tcp 1040 ------- 1 1.0 2.0 85 169
r 0.774832 1 2 tcp 1040 ------- 1 1.0 2.0 84 167
+ 0.774832 2 1 ack 40 ------- 1 2.0 1.0 84 170
- 0.774832 2 1 ack 40 ------- 1 2.0 1.0 84 170
r 0.776864 2 1 ack 40 ------- 1 2.0 1.0 83 168
+ 0.78 1 2 tcp 1040 ------- 1 1.0 2.0 86 171
- 0.78 1 2 tcp 1040 ------- 1 1.0 2.0 86 171
r 0.782832 1 2 tcp 1040 ------- 1 1.0 2.0 85 169
+ 0.782832 2 1 ack 40 ------- 1 2.0 1.0 85 172
- 0.782832 2 1 ack 40 ------- 1 2.0 1.0 85 172
r 0.784864 2 1 ack 40 ------- 1 2.0 1.0 84 170
+ 0.788 1 2 tcp 1040 ------- 1 1.0 2.0 87 173
- 0.788 1 2 tcp 1040 ------- 1 1.0 2.0 87 173
r 0.790832 1 2 tcp 1040 ------- 1 1.0 2.0 86 171
+ 0.790832 2 1 ack 40 ------- 1 2.0 1.0 86 174
- 0.790832 2 1 ack 40 ------- 1 2.0 1.0 86 174
r 0.792864 2 1 ack 40 ------- 1 2.0 1.0 85 172
+ 0.796 1 2 tcp 1040 ------- 1 1.0 2.0 88 175
- 0.796 1 2 tcp 1040 ------- 1 1.0 2.0 88 175
r 0.798832 1 2 tcp 1040 ------- 1 1.0 2.0 87 173
+ 0.798832 2 1 ack 40 ------- 1 2.0 1.0 87 176
- 0.798832 2 1 ack 40 ------- 1 2.0 1.0 87 176
r 0.800864 2 1 ack 40 ------- 1 2.0 1.0 86 174
+ 0.804 1 2 tcp 1040 ------- 1 1.0 2.0 89 177
- 0.804 1 2 tcp 1040 ------- 1 1.0 2.0 89 177
r 0.806832 1 2 tcp 1040 ------- 1 1.0 2.0 88 175
+ 0.806832 2 1 ack 40 ------- 1 2.0 1.0 88 178
- 0.806832 2 1 ack 40 ------- 1 2.0 1.0 88 178
r 0.808864 2 1 ack 40 ------- 1 2.0 1.0 87 176
+ 0.812 1 2 tcp 1040 ------- 1 1.0 2.0 90 179
- 0.812 1 2 tcp 1040 ------- 1 1.0 2.0 90 179
r 0.814832 1 2 tcp 1040 ------- 1 1.0 2.0 89 177
+ 0.814832 2 1 ack 40 ------- 1 2.0 1.0 89 180
- 0.814832 2 1 ack 40 ------- 1 2.0 1.0 89 180
r 0.816864 2 1 ack 40 ------- 1 2.0 1.0 88 178
+ 0.82 1 2 tcp 1040 ------- 1 1.0 2.0 91 181
- 0.82 1 2 tcp 1040 ------- 1 1.0 2.0 91 181
r 0.822832 1 2 tcp 1040 ------- 1 1.0 2.0 90 179
+ 0.822832 2 1 ack 40 ------- 1 2.0 1.0 90 182
- 0.822832 2 1 ack 40 ------- 1 2.0 1.0 90 182
r 0.824864 2 1 ack 40 ------- 1 2.0 1.0 89 180
+ 0.828 1 2 tcp 1040 ------- 1 1.0 2.0 92 183
- 0.828 1 2 tcp 1040 ------- 1 1.0 2.0 92 183
r 0.830832 1 2 tcp 1040 ------- 1 1.0 2.0 91 181
+ 0.830832 2 1 ack 40 ------- 1 2.0 1.0 91 184
- 0.830832 2 1 ack 40 ------- 1 2.0 1.0 91 184
r 0.832864 2 1 ack 40 ------- 1 2.0 1.0 90 182
+ 0.836 1 2 tcp 1040 ------- 1 1.0 2.0 93 185
- 0.836 1 2 tcp 1040 ------- 1 1.0 2.0 93 185
r 0.838832 1 2 tcp 1040 ------- 1 1.0 2.0 92 183
+ 0.838832 2 1 ack 40 ------- 1 2.0 1.0 92 186
- 0.838832 2 1 ack 40 ------- 1 2.0 1.0 92 186
r 0.840864 2 1 ack 40 ------- 1 2.0 1.0 91 184
+ 0.844 1 2 tcp 1040 ------- 1 1.0 2.0 94 187
- 0.844 1 2 tcp 1040 ------- 1 1.0 2.0 94 187
r 0.846832 1 2 tcp 1040 ------- 1 1.0 2.0 93 185
+ 0.846832 2 1 ack 40 ------- 1 2.0 1.0 93 188
- 0.846832 2 1 ack 40 ------- 1 2.0 1.0 93 188
r 0.848864 2 1 ack 40 ------- 1 2.0 1.0 92 186
+ 0.852 1 2 tcp 1040 ------- 1 1.0 2.0 95 189
- 0.852 1 2 tcp 1040 ------- 1 1.0 2.0 95 189
r 0.854832 1 2 tcp 1040 ------- 1 1.0 2.0 94 187
+ 0.854832 2 1 ack 40 ------- 1 2.0 1.0 94 190
- 0.854832 2 1 ack 40 ------- 1 2.0 1.0 94 190
r 0.856864 2 1 ack 40 ------- 1 2.0 1.0 93 188
+ 0.86 1 2 tcp 1040 ------- 1 1.0 2.0 96 191
- 0.86 1 2 tcp 1040 ------- 1 1.0 2.0 96 191
r 0.862832 1 2 tcp 1040 ------- 1 1.0 2.0 95 189
+ 0.862832 2 1 ack 40 ------- 1 2.0 1.0 95 192
- 0.862832 2 1 ack 40 ------- 1 2.0 1.0 95 192
r 0.864864 2 1 ack 40 ------- 1 2.0 1.0 94 190
+ 0.868 1 2 tcp 1040 ------- 1 1.0 2.0 97 193
- 0.868 1 2 tcp 1040 ------- 1 1.0 2.0 97 193
r 0.870832 1 2 tcp 1040 ------- 1 1.0 2.0 96 191
+ 0.870832 2 1 ack 40 ------- 1 2.0 1.0 96 194
- 0.870832 2 1 ack 40 ------- 1 2.0 1.0 96 194
r 0.872864 2 1 ack 40 ------- 1 2.0 1.0 95 192
+ 0.876 1 2 tcp 1040 ------- 1 1.0 2.0 98 195
- 0.876 1 2 tcp 1040 ------- 1 1.0 2.0 98 195
r 0.878832 1 2 tcp 1040 ------- 1 1.0 2.0 97 193
+ 0.878832 2 1 ack 40 ------- 1 2.0 1.0 97 196
- 0.878832 2 1 ack 40 ------- 1 2.0 1.0 97 196
r 0.880864 2 1 ack 40 ------- 1 2.0 1.0 96 194
+ 0.884 1 2 tcp 1040 ------- 1 1.0 2.0 99 197
- 0.884 1 2 tcp 1040 ------- 1 1.0 2.0 99 197
r 0.886832 1 2 tcp 1040 ------- 1 1.0 2.0 98 195
+ 0.886832 2 1 ack 40 ------- 1 2.0 1.0 98 198
- 0.886832 2 1 ack 40 ------- 1 2.0 1.0 98 198
r 0.888864 2 1 ack 40 ------- 1 2.0 1.0 97 196
+ 0.892 1 2 tcp 1040 ------- 1 1.0 2.0 100 199
- 0.892 1 2 tcp 1040 ------- 1 1.0 2.0 100 199
r 0.894832 1 2 tcp 1040 ------- 1 1.0 2.0 99 197
+ 0.894832 2 1 ack 40 ------- 1 2.0 1.0 99 200
- 0.894832 2 1 ack 40 ------- 1 2.0 1.0 99 200
r 0.896864 2 1 ack 40 ------- 1 2.0 1.0 98 198
+ 0.9 1 2 tcp 1040 ------- 1 1.0 2.0 101 201
- 0.9 1 2 tcp 1040 ------- 1 1.0 2.0 101 201
r 0.902832 1 2 tcp 1040 ------- 1 1.0 2.0 100 199
+ 0.902832 2 1 ack 40 ------- 1 2.0 1.0 100 202
- 0.902832 2 1 ack 40 ------- 1 2.0 1.0 100 202
r 0.904864 2 1 ack 40 ------- 1 2.0 1.0 99 200
+ 0.908 1 2 tcp 1040 ------- 1 1.0 2.0 102 203
- 0.908 1 2 tcp 1040 ------- 1 1.0 2.0 102 203
r 0.910832 1 2 tcp 1040 ------- 1 1.0 2.0 101 201
+ 0.910832 2 1 ack 40 ------- 1 2.0 1.0 101 204
- 0.910832 2 1 ack 40 ------- 1 2.0 1.0 101 204
r 0.912864 2 1 ack 40 ------- 1 2.0 1.0 100 202
+ 0.916 1 2 tcp 1040 ------- 1 1.0 2.0 103 205
- 0.916 1 2 tcp 1040 ------- 1 1.0 2.0 103 205
r 0.918832 1 2 tcp 1040 ------- 1 1.0 2.0 102 203
+ 0.918832 2 1 ack 40 ------- 1 2.0 1.0 102 206
- 0.918832 2 1 ack 40 ------- 1 2.0 1.0 102 206
r 0.920864 2 1 ack 40 ------- 1 2.0 1.0 101 204
+ 0.924 1 2 tcp 1040 ------- 1 1.0 2.0 104 207
- 0.924 1 2 tcp 1040 ------- 1 1.0 2.0 104 207
r 0.926832 1 2 tcp 1040 ------- 1 1.0 2.0 103 205
+ 0.926832 2 1 ack 40 ------- 1 2.0 1.0 103 208
- 0.926832 2 1 ack 40 ------- 1 2.0 1.0 103 208
r 0.928864 2 1 ack 40 ------- 1 2.0 1.0 102 206
+ 0.932 1 2 tcp 1040 ------- 1 1.0 2.0 105 209
- 0.932 1 2 tcp 1040 ------- 1 1.0 2.0 105 209
r 0.934832 1 2 tcp 1040 ------- 1 1.0 2.0 104 207
+ 0.934832 2 1 ack 40 ------- 1 2.0 1.0 104 210
- 0.934832 2 1 ack 40 ------- 1 2.0 1.0 104 210
r 0.936864 2 1 ack 40 ------- 1 2.0 1.0 103 208
+ 0.94 1 2 tcp 1040 ------- 1 1.0 2.0 106 211
- 0.94 1 2 tcp 1040 ------- 1 1.0 2.0 106 211
r 0.942832 1 2 tcp 1040 ------- 1 1.0 2.0 105 209
+ 0.942832 2 1 ack 40 ------- 1 2.0 1.0 105 212
- 0.942832 2 1 ack 40 ------- 1 2.0 1.0 105 212
r 0.944864 2 1 ack 40 ------- 1 2.0 1.0 104 210
+ 0.948 1 2 tcp 1040 ------- 1 1.0 2.0 107 213
- 0.948 1 2 tcp 1040 ------- 1 1.0 2.0 107 213
r 0.950832 1 2 tcp 1040 ------- 1 1.0 2.0 106 211
+ 0.950832 2 1 ack 40 ------- 1 2.0 1.0 106 214
- 0.950832 2 1 ack 40 ------- 1 2.0 1.0 106 214
r 0.952864 2 1 ack 40 ------- 1 2.0 1.0 105 212
+ 0.956 1 2 tcp 1040 ------- 1 1.0 2.0 108 215
- 0.956 1 2 tcp 1040 ------- 1 1.0 2.0 108 215
r 0.958832 1 2 tcp 1040 ------- 1 1.0 2.0 107 213