+ 0.1 1 2 cbr 1000 ------- 1 1.0 2.0 0 0
- 0.1 1 2 cbr 1000 ------- 1 1.0 2.0 0 0
+ 0.100667 1 2 cbr 1000 ------- 1 1.0 2.0 1 1
- 0.1008 1 2 cbr 1000 ------- 1 1.0 2.0 1 1
+ 0.101333 1 2 cbr 1000 ------- 1 1.0 2.0 2 2
- 0.1016 1 2 cbr 1000 ------- 1 1.0 2.0 2 2
+ 0.102 1 2 cbr 1000 ------- 1 1.0 2.0 3 3
- 0.1024 1 2 cbr 1000 ------- 1 1.0 2.0 3 3
+ 0.102667 1 2 cbr 1000 ------- 1 1.0 2.0 4 4
- 0.1032 1 2 cbr 1000 ------- 1 1.0 2.0 4 4
+ 0.103333 1 2 cbr 1000 ------- 1 1.0 2.0 5 5
- 0.104 1 2 cbr 1000 ------- 1 1.0 2.0 5 5
+ 0.104 1 2 cbr 1000 ------- 1 1.0 2.0 6 6
+ 0.104667 1 2 cbr 1000 ------- 1 1.0 2.0 7 7
- 0.1048 1 2 cbr 1000 ------- 1 1.0 2.0 6 6
+ 0.105333 1 2 cbr 1000 ------- 1 1.0 2.0 8 8
- 0.1056 1 2 cbr 1000 ------- 1 1.0 2.0 7 7
+ 0.106 1 2 cbr 1000 ------- 1 1.0 2.0 9 9
- 0.1064 1 2 cbr 1000 ------- 1 1.0 2.0 8 8
+ 0.106667 1 2 cbr 1000 ------- 1 1.0 2.0 10 10
- 0.1072 1 2 cbr 1000 ------- 1 1.0 2.0 9 9
+ 0.107333 1 2 cbr 1000 ------- 1 1.0 2.0 11 11
- 0.108 1 2 cbr 1000 ------- 1 1.0 2.0 10 10
+ 0.108 1 2 cbr 1000 ------- 1 1.0 2.0 12 12
+ 0.108667 1 2 cbr 1000 ------- 1 1.0 2.0 13 13
- 0.1088 1 2 cbr 1000 ------- 1 1.0 2.0 11 11
+ 0.109333 1 2 cbr 1000 ------- 1 1.0 2.0 14 14
- 0.1096 1 2 cbr 1000 ------- 1 1.0 2.0 12 12
+ 0.11 1 2 cbr 1000 ------- 1 1.0 2.0 15 15
- 0.1104 1 2 cbr 1000 ------- 1 1.0 2.0 13 13
+ 0.110667 1 2 cbr 1000 ------- 1 1.0 2.0 16 16
r 0.1108 1 2 cbr 1000 ------- 1 1.0 2.0 0 0
+ 0.1108 2 1 ack 40 ------- 1 2.0 1.0 0 17
- 0.1108 2 1 ack 40 ------- 1 2.0 1.0 0 17
- 0.1112 1 2 cbr 1000 ------- 1 1.0 2.0 14 14
+ 0.111333 1 2 cbr 1000 ------- 1 1.0 2.0 17 18
r 0.1116 1 2 cbr 1000 ------- 1 1.0 2.0 1 1
+ 0.1116 2 1 ack 40 ------- 1 2.0 1.0 0 19
- 0.1116 2 1 ack 40 ------- 1 2.0 1.0 0 19
- 0.112 1 2 cbr 1000 ------- 1 1.0 2.0 15 15
+ 0.112 1 2 cbr 1000 ------- 1 1.0 2.0 18 20
r 0.1124 1 2 cbr 1000 ------- 1 1.0 2.0 2 2
+ 0.1124 2 1 ack 40 ------- 1 2.0 1.0 0 21
- 0.1124 2 1 ack 40 ------- 1 2.0 1.0 0 21
+ 0.112667 1 2 cbr 1000 ------- 1 1.0 2.0 19 22
- 0.1128 1 2 cbr 1000 ------- 1 1.0 2.0 16 16
r 0.1132 1 2 cbr 1000 ------- 1 1.0 2.0 3 3
+ 0.1132 2 1 ack 40 ------- 1 2.0 1.0 0 23
- 0.1132 2 1 ack 40 ------- 1 2.0 1.0 0 23
+ 0.113333 1 2 cbr 1000 ------- 1 1.0 2.0 20 24
- 0.1136 1 2 cbr 1000 ------- 1 1.0 2.0 17 18
+ 0.114 1 2 cbr 1000 ------- 1 1.0 2.0 21 25
r 0.114 1 2 cbr 1000 ------- 1 1.0 2.0 4 4
+ 0.114 2 1 ack 40 ------- 1 2.0 1.0 0 26
- 0.114 2 1 ack 40 ------- 1 2.0 1.0 0 26
- 0.1144 1 2 cbr 1000 ------- 1 1.0 2.0 18 20
+ 0.114667 1 2 cbr 1000 ------- 1 1.0 2.0 22 27
r 0.1148 1 2 cbr 1000 ------- 1 1.0 2.0 5 5
+ 0.1148 2 1 ack 40 ------- 1 2.0 1.0 0 28
- 0.1148 2 1 ack 40 ------- 1 2.0 1.0 0 28
- 0.1152 1 2 cbr 1000 ------- 1 1.0 2.0 19 22
+ 0.115333 1 2 cbr 1000 ------- 1 1.0 2.0 23 29
r 0.1156 1 2 cbr 1000 ------- 1 1.0 2.0 6 6
+ 0.1156 2 1 ack 40 ------- 1 2.0 1.0 0 30
- 0.1156 2 1 ack 40 ------- 1 2.0 1.0 0 30
- 0.116 1 2 cbr 1000 ------- 1 1.0 2.0 20 24
+ 0.116 1 2 cbr 1000 ------- 1 1.0 2.0 24 31
r 0.1164 1 2 cbr 1000 ------- 1 1.0 2.0 7 7
+ 0.1164 2 1 ack 40 ------- 1 2.0 1.0 0 32
- 0.1164 2 1 ack 40 ------- 1 2.0 1.0 0 32
+ 0.116667 1 2 cbr 1000 ------- 1 1.0 2.0 25 33
- 0.1168 1 2 cbr 1000 ------- 1 1.0 2.0 21 25
r 0.1172 1 2 cbr 1000 ------- 1 1.0 2.0 8 8
+ 0.1172 2 1 ack 40 ------- 1 2.0 1.0 0 34
- 0.1172 2 1 ack 40 ------- 1 2.0 1.0 0 34
+ 0.117333 1 2 cbr 1000 ------- 1 1.0 2.0 26 35
- 0.1176 1 2 cbr 1000 ------- 1 1.0 2.0 22 27
+ 0.118 1 2 cbr 1000 ------- 1 1.0 2.0 27 36
r 0.118 1 2 cbr 1000 ------- 1 1.0 2.0 9 9
+ 0.118 2 1 ack 40 ------- 1 2.0 1.0 0 37
- 0.118 2 1 ack 40 ------- 1 2.0 1.0 0 37
- 0.1184 1 2 cbr 1000 ------- 1 1.0 2.0 23 29
+ 0.118667 1 2 cbr 1000 ------- 1 1.0 2.0 28 38
r 0.1188 1 2 cbr 1000 ------- 1 1.0 2.0 10 10
+ 0.1188 2 1 ack 40 ------- 1 2.0 1.0 0 39
- 0.1188 2 1 ack 40 ------- 1 2.0 1.0 0 39
- 0.1192 1 2 cbr 1000 ------- 1 1.0 2.0 24 31
+ 0.119333 1 2 cbr 1000 ------- 1 1.0 2.0 29 40
r 0.1196 1 2 cbr 1000 ------- 1 1.0 2.0 11 11
+ 0.1196 2 1 ack 40 ------- 1 2.0 1.0 0 41
- 0.1196 2 1 ack 40 ------- 1 2.0 1.0 0 41
- 0.12 1 2 cbr 1000 ------- 1 1.0 2.0 25 33
+ 0.12 1 2 cbr 1000 ------- 1 1.0 2.0 30 42
r 0.1204 1 2 cbr 1000 ------- 1 1.0 2.0 12 12
+ 0.1204 2 1 ack 40 ------- 1 2.0 1.0 0 43
- 0.1204 2 1 ack 40 ------- 1 2.0 1.0 0 43
+ 0.120667 1 2 cbr 1000 ------- 1 1.0 2.0 31 44
- 0.1208 1 2 cbr 1000 ------- 1 1.0 2.0 26 35
r 0.120832 2 1 ack 40 ------- 1 2.0 1.0 0 17
