+ 0.1 1 2 cbr 1000 ------- 1 1.0 2.0 0 0
- 0.1 1 2 cbr 1000 ------- 1 1.0 2.0 0 0
+ 0.101333 1 2 cbr 1000 ------- 1 1.0 2.0 1 1
- 0.101333 1 2 cbr 1000 ------- 1 1.0 2.0 1 1
+ 0.102667 1 2 cbr 1000 ------- 1 1.0 2.0 2 2
- 0.102667 1 2 cbr 1000 ------- 1 1.0 2.0 2 2
+ 0.104 1 2 cbr 1000 ------- 1 1.0 2.0 3 3
- 0.104 1 2 cbr 1000 ------- 1 1.0 2.0 3 3
+ 0.105333 1 2 cbr 1000 ------- 1 1.0 2.0 4 4
- 0.105333 1 2 cbr 1000 ------- 1 1.0 2.0 4 4
+ 0.106667 1 2 cbr 1000 ------- 1 1.0 2.0 5 5
- 0.106667 1 2 cbr 1000 ------- 1 1.0 2.0 5 5
+ 0.108 1 2 cbr 1000 ------- 1 1.0 2.0 6 6
- 0.108 1 2 cbr 1000 ------- 1 1.0 2.0 6 6
+ 0.109333 1 2 cbr 1000 ------- 1 1.0 2.0 7 7
- 0.109333 1 2 cbr 1000 ------- 1 1.0 2.0 7 7
+ 0.110667 1 2 cbr 1000 ------- 1 1.0 2.0 8 8
- 0.110667 1 2 cbr 1000 ------- 1 1.0 2.0 8 8
r 0.1108 1 2 cbr 1000 ------- 1 1.0 2.0 0 0
+ 0.1108 2 1 ack 40 ------- 1 2.0 1.0 0 9
- 0.1108 2 1 ack 40 ------- 1 2.0 1.0 0 9
+ 0.112 1 2 cbr 1000 ------- 1 1.0 2.0 9 10
- 0.112 1 2 cbr 1000 ------- 1 1.0 2.0 9 10
r 0.112133 1 2 cbr 1000 ------- 1 1.0 2.0 1 1
+ 0.112133 2 1 ack 40 ------- 1 2.0 1.0 0 11
- 0.112133 2 1 ack 40 ------- 1 2.0 1.0 0 11
+ 0.113333 1 2 cbr 1000 ------- 1 1.0 2.0 10 12
- 0.113333 1 2 cbr 1000 ------- 1 1.0 2.0 10 12
r 0.113467 1 2 cbr 1000 ------- 1 1.0 2.0 2 2
+ 0.113467 2 1 ack 40 ------- 1 2.0 1.0 0 13
- 0.113467 2 1 ack 40 ------- 1 2.0 1.0 0 13
+ 0.114667 1 2 cbr 1000 ------- 1 1.0 2.0 11 14
- 0.114667 1 2 cbr 1000 ------- 1 1.0 2.0 11 14
r 0.1148 1 2 cbr 1000 ------- 1 1.0 2.0 3 3
+ 0.1148 2 1 ack 40 ------- 1 2.0 1.0 0 15
- 0.1148 2 1 ack 40 ------- 1 2.0 1.0 0 15
+ 0.116 1 2 cbr 1000 ------- 1 1.0 2.0 12 16
- 0.116 1 2 cbr 1000 ------- 1 1.0 2.0 12 16
r 0.116133 1 2 cbr 1000 ------- 1 1.0 2.0 4 4
+ 0.116133 2 1 ack 40 ------- 1 2.0 1.0 0 17
- 0.116133 2 1 ack 40 ------- 1 2.0 1.0 0 17
+ 0.117333 1 2 cbr 1000 ------- 1 1.0 2.0 13 18
- 0.117333 1 2 cbr 1000 ------- 1 1.0 2.0 13 18
r 0.117467 1 2 cbr 1000 ------- 1 1.0 2.0 5 5
+ 0.117467 2 1 ack 40 ------- 1 2.0 1.0 0 19
- 0.117467 2 1 ack 40 ------- 1 2.0 1.0 0 19
+ 0.118667 1 2 cbr 1000 ------- 1 1.0 2.0 14 20
- 0.118667 1 2 cbr 1000 ------- 1 1.0 2.0 14 20
r 0.1188 1 2 cbr 1000 ------- 1 1.0 2.0 6 6
+ 0.1188 2 1 ack 40 ------- 1 2.0 1.0 0 21
- 0.1188 2 1 ack 40 ------- 1 2.0 1.0 0 21
+ 0.12 1 2 cbr 1000 ------- 1 1.0 2.0 15 22
- 0.12 1 2 cbr 1000 ------- 1 1.0 2.0 15 22
r 0.120133 1 2 cbr 1000 ------- 1 1.0 2.0 7 7
+ 0.120133 2 1 ack 40 ------- 1 2.0 1.0 0 23
- 0.120133 2 1 ack 40 ------- 1 2.0 1.0 0 23
r 0.120832 2 1 ack 40 ------- 1 2.0 1.0 0 9
