+ 0.1 1 2 cbr 1000 ------- 1 1.0 2.0 0 0
- 0.1 1 2 cbr 1000 ------- 1 1.0 2.0 0 0
+ 0.101 1 2 cbr 1000 ------- 1 1.0 2.0 1 1
- 0.101 1 2 cbr 1000 ------- 1 1.0 2.0 1 1
+ 0.102 1 2 cbr 1000 ------- 1 1.0 2.0 2 2
- 0.102 1 2 cbr 1000 ------- 1 1.0 2.0 2 2
+ 0.103 1 2 cbr 1000 ------- 1 1.0 2.0 3 3
- 0.103 1 2 cbr 1000 ------- 1 1.0 2.0 3 3
+ 0.104 1 2 cbr 1000 ------- 1 1.0 2.0 4 4
- 0.104 1 2 cbr 1000 ------- 1 1.0 2.0 4 4
+ 0.105 1 2 cbr 1000 ------- 1 1.0 2.0 5 5
- 0.105 1 2 cbr 1000 ------- 1 1.0 2.0 5 5
+ 0.106 1 2 cbr 1000 ------- 1 1.0 2.0 6 6
- 0.106 1 2 cbr 1000 ------- 1 1.0 2.0 6 6
+ 0.107 1 2 cbr 1000 ------- 1 1.0 2.0 7 7
- 0.107 1 2 cbr 1000 ------- 1 1.0 2.0 7 7
+ 0.108 1 2 cbr 1000 ------- 1 1.0 2.0 8 8
- 0.108 1 2 cbr 1000 ------- 1 1.0 2.0 8 8
+ 0.109 1 2 cbr 1000 ------- 1 1.0 2.0 9 9
- 0.109 1 2 cbr 1000 ------- 1 1.0 2.0 9 9
+ 0.11 1 2 cbr 1000 ------- 1 1.0 2.0 10 10
- 0.11 1 2 cbr 1000 ------- 1 1.0 2.0 10 10
r 0.1108 1 2 cbr 1000 ------- 1 1.0 2.0 0 0
+ 0.1108 2 1 ack 40 ------- 1 2.0 1.0 0 11
- 0.1108 2 1 ack 40 ------- 1 2.0 1.0 0 11
+ 0.111 1 2 cbr 1000 ------- 1 1.0 2.0 11 12
- 0.111 1 2 cbr 1000 ------- 1 1.0 2.0 11 12
r 0.1118 1 2 cbr 1000 ------- 1 1.0 2.0 1 1
+ 0.1118 2 1 ack 40 ------- 1 2.0 1.0 0 13
- 0.1118 2 1 ack 40 ------- 1 2.0 1.0 0 13
+ 0.112 1 2 cbr 1000 ------- 1 1.0 2.0 12 14
- 0.112 1 2 cbr 1000 ------- 1 1.0 2.0 12 14
r 0.1128 1 2 cbr 1000 ------- 1 1.0 2.0 2 2
+ 0.1128 2 1 ack 40 ------- 1 2.0 1.0 0 15
- 0.1128 2 1 ack 40 ------- 1 2.0 1.0 0 15
+ 0.113 1 2 cbr 1000 ------- 1 1.0 2.0 13 16
- 0.113 1 2 cbr 1000 ------- 1 1.0 2.0 13 16
r 0.1138 1 2 cbr 1000 ------- 1 1.0 2.0 3 3
+ 0.1138 2 1 ack 40 ------- 1 2.0 1.0 0 17
- 0.1138 2 1 ack 40 ------- 1 2.0 1.0 0 17
+ 0.114 1 2 cbr 1000 ------- 1 1.0 2.0 14 18
- 0.114 1 2 cbr 1000 ------- 1 1.0 2.0 14 18
r 0.1148 1 2 cbr 1000 ------- 1 1.0 2.0 4 4
+ 0.1148 2 1 ack 40 ------- 1 2.0 1.0 0 19
- 0.1148 2 1 ack 40 ------- 1 2.0 1.0 0 19
+ 0.115 1 2 cbr 1000 ------- 1 1.0 2.0 15 20
- 0.115 1 2 cbr 1000 ------- 1 1.0 2.0 15 20
r 0.1158 1 2 cbr 1000 ------- 1 1.0 2.0 5 5
+ 0.1158 2 1 ack 40 ------- 1 2.0 1.0 0 21
- 0.1158 2 1 ack 40 ------- 1 2.0 1.0 0 21
+ 0.116 1 2 cbr 1000 ------- 1 1.0 2.0 16 22
- 0.116 1 2 cbr 1000 ------- 1 1.0 2.0 16 22
r 0.1168 1 2 cbr 1000 ------- 1 1.0 2.0 6 6
+ 0.1168 2 1 ack 40 ------- 1 2.0 1.0 0 23
- 0.1168 2 1 ack 40 ------- 1 2.0 1.0 0 23
+ 0.117 1 2 cbr 1000 ------- 1 1.0 2.0 17 24
- 0.117 1 2 cbr 1000 ------- 1 1.0 2.0 17 24
r 0.1178 1 2 cbr 1000 ------- 1 1.0 2.0 7 7
+ 0.1178 2 1 ack 40 ------- 1 2.0 1.0 0 25
- 0.1178 2 1 ack 40 ------- 1 2.0 1.0 0 25
+ 0.118 1 2 cbr 1000 ------- 1 1.0 2.0 18 26
- 0.118 1 2 cbr 1000 ------- 1 1.0 2.0 18 26
r 0.1188 1 2 cbr 1000 ------- 1 1.0 2.0 8 8
+ 0.1188 2 1 ack 40 ------- 1 2.0 1.0 0 27
- 0.1188 2 1 ack 40 ------- 1 2.0 1.0 0 27
+ 0.119 1 2 cbr 1000 ------- 1 1.0 2.0 19 28
- 0.119 1 2 cbr 1000 ------- 1 1.0 2.0 19 28
r 0.1198 1 2 cbr 1000 ------- 1 1.0 2.0 9 9
+ 0.1198 2 1 ack 40 ------- 1 2.0 1.0 0 29
- 0.1198 2 1 ack 40 ------- 1 2.0 1.0 0 29
+ 0.12 1 2 cbr 1000 ------- 1 1.0 2.0 20 30
- 0.12 1 2 cbr 1000 ------- 1 1.0 2.0 20 30
r 0.1208 1 2 cbr 1000 ------- 1 1.0 2.0 10 10
+ 0.1208 2 1 ack 40 ------- 1 2.0 1.0 0 31
- 0.1208 2 1 ack 40 ------- 1 2.0 1.0 0 31
r 0.120832 2 1 ack 40 ------- 1 2.0 1.0 0 11
