+ 0.1 1 2 cbr 1000 ------- 1 1.0 2.0 0 0
- 0.1 1 2 cbr 1000 ------- 1 1.0 2.0 0 0
+ 0.100571 1 2 cbr 1000 ------- 1 1.0 2.0 1 1
- 0.1008 1 2 cbr 1000 ------- 1 1.0 2.0 1 1
+ 0.101143 1 2 cbr 1000 ------- 1 1.0 2.0 2 2
- 0.1016 1 2 cbr 1000 ------- 1 1.0 2.0 2 2
+ 0.101714 1 2 cbr 1000 ------- 1 1.0 2.0 3 3
+ 0.102286 1 2 cbr 1000 ------- 1 1.0 2.0 4 4
- 0.1024 1 2 cbr 1000 ------- 1 1.0 2.0 3 3
+ 0.102857 1 2 cbr 1000 ------- 1 1.0 2.0 5 5
- 0.1032 1 2 cbr 1000 ------- 1 1.0 2.0 4 4
+ 0.103429 1 2 cbr 1000 ------- 1 1.0 2.0 6 6
- 0.104 1 2 cbr 1000 ------- 1 1.0 2.0 5 5
+ 0.104 1 2 cbr 1000 ------- 1 1.0 2.0 7 7
+ 0.104571 1 2 cbr 1000 ------- 1 1.0 2.0 8 8
- 0.1048 1 2 cbr 1000 ------- 1 1.0 2.0 6 6
+ 0.105143 1 2 cbr 1000 ------- 1 1.0 2.0 9 9
- 0.1056 1 2 cbr 1000 ------- 1 1.0 2.0 7 7
+ 0.105714 1 2 cbr 1000 ------- 1 1.0 2.0 10 10
+ 0.106286 1 2 cbr 1000 ------- 1 1.0 2.0 11 11
- 0.1064 1 2 cbr 1000 ------- 1 1.0 2.0 8 8
+ 0.106857 1 2 cbr 1000 ------- 1 1.0 2.0 12 12
- 0.1072 1 2 cbr 1000 ------- 1 1.0 2.0 9 9
+ 0.107429 1 2 cbr 1000 ------- 1 1.0 2.0 13 13
- 0.108 1 2 cbr 1000 ------- 1 1.0 2.0 10 10
+ 0.108 1 2 cbr 1000 ------- 1 1.0 2.0 14 14
+ 0.108571 1 2 cbr 1000 ------- 1 1.0 2.0 15 15
- 0.1088 1 2 cbr 1000 ------- 1 1.0 2.0 11 11
+ 0.109143 1 2 cbr 1000 ------- 1 1.0 2.0 16 16
- 0.1096 1 2 cbr 1000 ------- 1 1.0 2.0 12 12
+ 0.109714 1 2 cbr 1000 ------- 1 1.0 2.0 17 17
+ 0.110286 1 2 cbr 1000 ------- 1 1.0 2.0 18 18
- 0.1104 1 2 cbr 1000 ------- 1 1.0 2.0 13 13
r 0.1108 1 2 cbr 1000 ------- 1 1.0 2.0 0 0
+ 0.1108 2 1 ack 40 ------- 1 2.0 1.0 0 19
- 0.1108 2 1 ack 40 ------- 1 2.0 1.0 0 19
+ 0.110857 1 2 cbr 1000 ------- 1 1.0 2.0 19 20
- 0.1112 1 2 cbr 1000 ------- 1 1.0 2.0 14 14
+ 0.111429 1 2 cbr 1000 ------- 1 1.0 2.0 20 21
r 0.1116 1 2 cbr 1000 ------- 1 1.0 2.0 1 1
+ 0.1116 2 1 ack 40 ------- 1 2.0 1.0 0 22
- 0.1116 2 1 ack 40 ------- 1 2.0 1.0 0 22
- 0.112 1 2 cbr 1000 ------- 1 1.0 2.0 15 15
+ 0.112 1 2 cbr 1000 ------- 1 1.0 2.0 21 23
r 0.1124 1 2 cbr 1000 ------- 1 1.0 2.0 2 2
+ 0.1124 2 1 ack 40 ------- 1 2.0 1.0 0 24
- 0.1124 2 1 ack 40 ------- 1 2.0 1.0 0 24
+ 0.112571 1 2 cbr 1000 ------- 1 1.0 2.0 22 25
- 0.1128 1 2 cbr 1000 ------- 1 1.0 2.0 16 16
+ 0.113143 1 2 cbr 1000 ------- 1 1.0 2.0 23 26
r 0.1132 1 2 cbr 1000 ------- 1 1.0 2.0 3 3
+ 0.1132 2 1 ack 40 ------- 1 2.0 1.0 0 27
- 0.1132 2 1 ack 40 ------- 1 2.0 1.0 0 27
- 0.1136 1 2 cbr 1000 ------- 1 1.0 2.0 17 17
+ 0.113714 1 2 cbr 1000 ------- 1 1.0 2.0 24 28
r 0.114 1 2 cbr 1000 ------- 1 1.0 2.0 4 4
+ 0.114 2 1 ack 40 ------- 1 2.0 1.0 0 29
- 0.114 2 1 ack 40 ------- 1 2.0 1.0 0 29
+ 0.114286 1 2 cbr 1000 ------- 1 1.0 2.0 25 30
- 0.1144 1 2 cbr 1000 ------- 1 1.0 2.0 18 18
r 0.1148 1 2 cbr 1000 ------- 1 1.0 2.0 5 5
+ 0.1148 2 1 ack 40 ------- 1 2.0 1.0 0 31
- 0.1148 2 1 ack 40 ------- 1 2.0 1.0 0 31
+ 0.114857 1 2 cbr 1000 ------- 1 1.0 2.0 26 32
- 0.1152 1 2 cbr 1000 ------- 1 1.0 2.0 19 20
+ 0.115429 1 2 cbr 1000 ------- 1 1.0 2.0 27 33
r 0.1156 1 2 cbr 1000 ------- 1 1.0 2.0 6 6
+ 0.1156 2 1 ack 40 ------- 1 2.0 1.0 0 34
- 0.1156 2 1 ack 40 ------- 1 2.0 1.0 0 34
- 0.116 1 2 cbr 1000 ------- 1 1.0 2.0 20 21
+ 0.116 1 2 cbr 1000 ------- 1 1.0 2.0 28 35
r 0.1164 1 2 cbr 1000 ------- 1 1.0 2.0 7 7
+ 0.1164 2 1 ack 40 ------- 1 2.0 1.0 0 36
- 0.1164 2 1 ack 40 ------- 1 2.0 1.0 0 36
+ 0.116571 1 2 cbr 1000 ------- 1 1.0 2.0 29 37
- 0.1168 1 2 cbr 1000 ------- 1 1.0 2.0 21 23
+ 0.117143 1 2 cbr 1000 ------- 1 1.0 2.0 30 38
r 0.1172 1 2 cbr 1000 ------- 1 1.0 2.0 8 8
+ 0.1172 2 1 ack 40 ------- 1 2.0 1.0 0 39
- 0.1172 2 1 ack 40 ------- 1 2.0 1.0 0 39
- 0.1176 1 2 cbr 1000 ------- 1 1.0 2.0 22 25
+ 0.117714 1 2 cbr 1000 ------- 1 1.0 2.0 31 40
r 0.118 1 2 cbr 1000 ------- 1 1.0 2.0 9 9
+ 0.118 2 1 ack 40 ------- 1 2.0 1.0 0 41
- 0.118 2 1 ack 40 ------- 1 2.0 1.0 0 41
+ 0.118286 1 2 cbr 1000 ------- 1 1.0 2.0 32 42
d 0.118286 1 2 cbr 1000 ------- 1 1.0 2.0 32 42
- 0.1184 1 2 cbr 1000 ------- 1 1.0 2.0 23 26
r 0.1188 1 2 cbr 1000 ------- 1 1.0 2.0 10 10
+ 0.1188 2 1 ack 40 ------- 1 2.0 1.0 0 43
- 0.1188 2 1 ack 40 ------- 1 2.0 1.0 0 43
+ 0.118857 1 2 cbr 1000 ------- 1 1.0 2.0 33 44
- 0.1192 1 2 cbr 1000 ------- 1 1.0 2.0 24 28
+ 0.119429 1 2 cbr 1000 ------- 1 1.0 2.0 34 45
r 0.1196 1 2 cbr 1000 ------- 1 1.0 2.0 11 11
+ 0.1196 2 1 ack 40 ------- 1 2.0 1.0 0 46
- 0.1196 2 1 ack 40 ------- 1 2.0 1.0 0 46
- 0.12 1 2 cbr 1000 ------- 1 1.0 2.0 25 30
+ 0.12 1 2 cbr 1000 ------- 1 1.0 2.0 35 47
r 0.1204 1 2 cbr 1000 ------- 1 1.0 2.0 12 12
+ 0.1204 2 1 ack 40 ------- 1 2.0 1.0 0 48
- 0.1204 2 1 ack 40 ------- 1 2.0 1.0 0 48
+ 0.120571 1 2 cbr 1000 ------- 1 1.0 2.0 36 49
d 0.120571 1 2 cbr 1000 ------- 1 1.0 2.0 36 49
- 0.1208 1 2 cbr 1000 ------- 1 1.0 2.0 26 32
r 0.120832 2 1 ack 40 ------- 1 2.0 1.0 0 19
