+ 0.1 1 2 cbr 1000 ------- 1 1.0 2.0 0 0
- 0.1 1 2 cbr 1000 ------- 1 1.0 2.0 0 0
+ 0.104 1 2 cbr 1000 ------- 1 1.0 2.0 1 1
- 0.104 1 2 cbr 1000 ------- 1 1.0 2.0 1 1
+ 0.108 1 2 cbr 1000 ------- 1 1.0 2.0 2 2
- 0.108 1 2 cbr 1000 ------- 1 1.0 2.0 2 2
r 0.1108 1 2 cbr 1000 ------- 1 1.0 2.0 0 0
+ 0.1108 2 1 ack 40 ------- 1 2.0 1.0 0 3
- 0.1108 2 1 ack 40 ------- 1 2.0 1.0 0 3
+ 0.112 1 2 cbr 1000 ------- 1 1.0 2.0 3 4
- 0.112 1 2 cbr 1000 ------- 1 1.0 2.0 3 4
r 0.1148 1 2 cbr 1000 ------- 1 1.0 2.0 1 1
+ 0.1148 2 1 ack 40 ------- 1 2.0 1.0 0 5
- 0.1148 2 1 ack 40 ------- 1 2.0 1.0 0 5
+ 0.116 1 2 cbr 1000 ------- 1 1.0 2.0 4 6
- 0.116 1 2 cbr 1000 ------- 1 1.0 2.0 4 6
r 0.1188 1 2 cbr 1000 ------- 1 1.0 2.0 2 2
+ 0.1188 2 1 ack 40 ------- 1 2.0 1.0 0 7
- 0.1188 2 1 ack 40 ------- 1 2.0 1.0 0 7
+ 0.12 1 2 cbr 1000 ------- 1 1.0 2.0 5 8
- 0.12 1 2 cbr 1000 ------- 1 1.0 2.0 5 8
r 0.120832 2 1 ack 40 ------- 1 2.0 1.0 0 3
