+ 0.1 1 2 cbr 1000 ------- 1 1.0 2.0 0 0
- 0.1 1 2 cbr 1000 ------- 1 1.0 2.0 0 0
+ 0.102 1 2 cbr 1000 ------- 1 1.0 2.0 1 1
- 0.102 1 2 cbr 1000 ------- 1 1.0 2.0 1 1
+ 0.104 1 2 cbr 1000 ------- 1 1.0 2.0 2 2
- 0.104 1 2 cbr 1000 ------- 1 1.0 2.0 2 2
+ 0.106 1 2 cbr 1000 ------- 1 1.0 2.0 3 3
- 0.106 1 2 cbr 1000 ------- 1 1.0 2.0 3 3
+ 0.108 1 2 cbr 1000 ------- 1 1.0 2.0 4 4
- 0.108 1 2 cbr 1000 ------- 1 1.0 2.0 4 4
+ 0.11 1 2 cbr 1000 ------- 1 1.0 2.0 5 5
- 0.11 1 2 cbr 1000 ------- 1 1.0 2.0 5 5
r 0.1108 1 2 cbr 1000 ------- 1 1.0 2.0 0 0
+ 0.1108 2 1 ack 40 ------- 1 2.0 1.0 0 6
- 0.1108 2 1 ack 40 ------- 1 2.0 1.0 0 6
+ 0.112 1 2 cbr 1000 ------- 1 1.0 2.0 6 7
- 0.112 1 2 cbr 1000 ------- 1 1.0 2.0 6 7
r 0.1128 1 2 cbr 1000 ------- 1 1.0 2.0 1 1
+ 0.1128 2 1 ack 40 ------- 1 2.0 1.0 0 8
- 0.1128 2 1 ack 40 ------- 1 2.0 1.0 0 8
+ 0.114 1 2 cbr 1000 ------- 1 1.0 2.0 7 9
- 0.114 1 2 cbr 1000 ------- 1 1.0 2.0 7 9
r 0.1148 1 2 cbr 1000 ------- 1 1.0 2.0 2 2
+ 0.1148 2 1 ack 40 ------- 1 2.0 1.0 0 10
- 0.1148 2 1 ack 40 ------- 1 2.0 1.0 0 10
+ 0.116 1 2 cbr 1000 ------- 1 1.0 2.0 8 11
- 0.116 1 2 cbr 1000 ------- 1 1.0 2.0 8 11
r 0.1168 1 2 cbr 1000 ------- 1 1.0 2.0 3 3
+ 0.1168 2 1 ack 40 ------- 1 2.0 1.0 0 12
- 0.1168 2 1 ack 40 ------- 1 2.0 1.0 0 12
+ 0.118 1 2 cbr 1000 ------- 1 1.0 2.0 9 13
- 0.118 1 2 cbr 1000 ------- 1 1.0 2.0 9 13
r 0.1188 1 2 cbr 1000 ------- 1 1.0 2.0 4 4
+ 0.1188 2 1 ack 40 ------- 1 2.0 1.0 0 14
- 0.1188 2 1 ack 40 ------- 1 2.0 1.0 0 14
+ 0.12 1 2 cbr 1000 ------- 1 1.0 2.0 10 15
- 0.12 1 2 cbr 1000 ------- 1 1.0 2.0 10 15
r 0.1208 1 2 cbr 1000 ------- 1 1.0 2.0 5 5
+ 0.1208 2 1 ack 40 ------- 1 2.0 1.0 0 16
- 0.1208 2 1 ack 40 ------- 1 2.0 1.0 0 16
r 0.120832 2 1 ack 40 ------- 1 2.0 1.0 0 6
