+ 0.1 1 2 cbr 1000 ------- 1 1.0 2.0 0 0
- 0.1 1 2 cbr 1000 ------- 1 1.0 2.0 0 0
+ 0.1008 1 2 cbr 1000 ------- 1 1.0 2.0 1 1
- 0.1008 1 2 cbr 1000 ------- 1 1.0 2.0 1 1
+ 0.1016 1 2 cbr 1000 ------- 1 1.0 2.0 2 2
- 0.1016 1 2 cbr 1000 ------- 1 1.0 2.0 2 2
+ 0.1024 1 2 cbr 1000 ------- 1 1.0 2.0 3 3
- 0.1024 1 2 cbr 1000 ------- 1 1.0 2.0 3 3
+ 0.1032 1 2 cbr 1000 ------- 1 1.0 2.0 4 4
- 0.1032 1 2 cbr 1000 ------- 1 1.0 2.0 4 4
+ 0.104 1 2 cbr 1000 ------- 1 1.0 2.0 5 5
- 0.104 1 2 cbr 1000 ------- 1 1.0 2.0 5 5
+ 0.1048 1 2 cbr 1000 ------- 1 1.0 2.0 6 6
- 0.1048 1 2 cbr 1000 ------- 1 1.0 2.0 6 6
+ 0.1056 1 2 cbr 1000 ------- 1 1.0 2.0 7 7
- 0.1056 1 2 cbr 1000 ------- 1 1.0 2.0 7 7
+ 0.1064 1 2 cbr 1000 ------- 1 1.0 2.0 8 8
- 0.1064 1 2 cbr 1000 ------- 1 1.0 2.0 8 8
+ 0.1072 1 2 cbr 1000 ------- 1 1.0 2.0 9 9
- 0.1072 1 2 cbr 1000 ------- 1 1.0 2.0 9 9
+ 0.108 1 2 cbr 1000 ------- 1 1.0 2.0 10 10
- 0.108 1 2 cbr 1000 ------- 1 1.0 2.0 10 10
+ 0.1088 1 2 cbr 1000 ------- 1 1.0 2.0 11 11
- 0.1088 1 2 cbr 1000 ------- 1 1.0 2.0 11 11
+ 0.1096 1 2 cbr 1000 ------- 1 1.0 2.0 12 12
- 0.1096 1 2 cbr 1000 ------- 1 1.0 2.0 12 12
+ 0.1104 1 2 cbr 1000 ------- 1 1.0 2.0 13 13
- 0.1104 1 2 cbr 1000 ------- 1 1.0 2.0 13 13
r 0.1108 1 2 cbr 1000 ------- 1 1.0 2.0 0 0
+ 0.1108 2 1 ack 40 ------- 1 2.0 1.0 0 14
- 0.1108 2 1 ack 40 ------- 1 2.0 1.0 0 14
+ 0.1112 1 2 cbr 1000 ------- 1 1.0 2.0 14 15
- 0.1112 1 2 cbr 1000 ------- 1 1.0 2.0 14 15
r 0.1116 1 2 cbr 1000 ------- 1 1.0 2.0 1 1
+ 0.1116 2 1 ack 40 ------- 1 2.0 1.0 0 16
- 0.1116 2 1 ack 40 ------- 1 2.0 1.0 0 16
+ 0.112 1 2 cbr 1000 ------- 1 1.0 2.0 15 17
- 0.112 1 2 cbr 1000 ------- 1 1.0 2.0 15 17
r 0.1124 1 2 cbr 1000 ------- 1 1.0 2.0 2 2
+ 0.1124 2 1 ack 40 ------- 1 2.0 1.0 0 18
- 0.1124 2 1 ack 40 ------- 1 2.0 1.0 0 18
+ 0.1128 1 2 cbr 1000 ------- 1 1.0 2.0 16 19
- 0.1128 1 2 cbr 1000 ------- 1 1.0 2.0 16 19
r 0.1132 1 2 cbr 1000 ------- 1 1.0 2.0 3 3
+ 0.1132 2 1 ack 40 ------- 1 2.0 1.0 0 20
- 0.1132 2 1 ack 40 ------- 1 2.0 1.0 0 20
+ 0.1136 1 2 cbr 1000 ------- 1 1.0 2.0 17 21
- 0.1136 1 2 cbr 1000 ------- 1 1.0 2.0 17 21
r 0.114 1 2 cbr 1000 ------- 1 1.0 2.0 4 4
+ 0.114 2 1 ack 40 ------- 1 2.0 1.0 0 22
- 0.114 2 1 ack 40 ------- 1 2.0 1.0 0 22
+ 0.1144 1 2 cbr 1000 ------- 1 1.0 2.0 18 23
- 0.1144 1 2 cbr 1000 ------- 1 1.0 2.0 18 23
r 0.1148 1 2 cbr 1000 ------- 1 1.0 2.0 5 5
+ 0.1148 2 1 ack 40 ------- 1 2.0 1.0 0 24
- 0.1148 2 1 ack 40 ------- 1 2.0 1.0 0 24
+ 0.1152 1 2 cbr 1000 ------- 1 1.0 2.0 19 25
- 0.1152 1 2 cbr 1000 ------- 1 1.0 2.0 19 25
r 0.1156 1 2 cbr 1000 ------- 1 1.0 2.0 6 6
+ 0.1156 2 1 ack 40 ------- 1 2.0 1.0 0 26
- 0.1156 2 1 ack 40 ------- 1 2.0 1.0 0 26
+ 0.116 1 2 cbr 1000 ------- 1 1.0 2.0 20 27
- 0.116 1 2 cbr 1000 ------- 1 1.0 2.0 20 27
r 0.1164 1 2 cbr 1000 ------- 1 1.0 2.0 7 7
+ 0.1164 2 1 ack 40 ------- 1 2.0 1.0 0 28
- 0.1164 2 1 ack 40 ------- 1 2.0 1.0 0 28
+ 0.1168 1 2 cbr 1000 ------- 1 1.0 2.0 21 29
- 0.1168 1 2 cbr 1000 ------- 1 1.0 2.0 21 29
r 0.1172 1 2 cbr 1000 ------- 1 1.0 2.0 8 8
+ 0.1172 2 1 ack 40 ------- 1 2.0 1.0 0 30
- 0.1172 2 1 ack 40 ------- 1 2.0 1.0 0 30
+ 0.1176 1 2 cbr 1000 ------- 1 1.0 2.0 22 31
- 0.1176 1 2 cbr 1000 ------- 1 1.0 2.0 22 31
r 0.118 1 2 cbr 1000 ------- 1 1.0 2.0 9 9
+ 0.118 2 1 ack 40 ------- 1 2.0 1.0 0 32
- 0.118 2 1 ack 40 ------- 1 2.0 1.0 0 32
+ 0.1184 1 2 cbr 1000 ------- 1 1.0 2.0 23 33
- 0.1184 1 2 cbr 1000 ------- 1 1.0 2.0 23 33
r 0.1188 1 2 cbr 1000 ------- 1 1.0 2.0 10 10
+ 0.1188 2 1 ack 40 ------- 1 2.0 1.0 0 34
- 0.1188 2 1 ack 40 ------- 1 2.0 1.0 0 34
+ 0.1192 1 2 cbr 1000 ------- 1 1.0 2.0 24 35
- 0.1192 1 2 cbr 1000 ------- 1 1.0 2.0 24 35
r 0.1196 1 2 cbr 1000 ------- 1 1.0 2.0 11 11
+ 0.1196 2 1 ack 40 ------- 1 2.0 1.0 0 36
- 0.1196 2 1 ack 40 ------- 1 2.0 1.0 0 36
+ 0.12 1 2 cbr 1000 ------- 1 1.0 2.0 25 37
- 0.12 1 2 cbr 1000 ------- 1 1.0 2.0 25 37
r 0.1204 1 2 cbr 1000 ------- 1 1.0 2.0 12 12
+ 0.1204 2 1 ack 40 ------- 1 2.0 1.0 0 38
- 0.1204 2 1 ack 40 ------- 1 2.0 1.0 0 38
+ 0.1208 1 2 cbr 1000 ------- 1 1.0 2.0 26 39
- 0.1208 1 2 cbr 1000 ------- 1 1.0 2.0 26 39
r 0.120832 2 1 ack 40 ------- 1 2.0 1.0 0 14
